9
Framenumber:     0 Time [yr]:   0.000 Step:          1 Energy:  -0.198E+30
Sun         1  0.284E+06  0.904E+06 -0.183E+05 -0.989E-02  0.890E-02  0.238E-03
Mercury     2 -0.230E+07  0.470E+08  0.398E+07 -0.584E+02 -0.950E+00  0.528E+01
Venus       3 -0.392E+08 -0.100E+09  0.872E+06  0.324E+02 -0.129E+02 -0.205E+01
Earth       4  0.183E+08  0.147E+09 -0.250E+05 -0.301E+02  0.356E+01  0.193E-03
Mars        5 -0.244E+09 -0.253E+08  0.543E+07  0.348E+01 -0.220E+02 -0.547E+00
Jupiter     6 -0.649E+09 -0.489E+09  0.165E+08  0.771E+01 -0.982E+01 -0.132E+00
Saturn      7 -0.623E+07 -0.150E+10  0.264E+08  0.913E+01 -0.703E-01 -0.362E+00
Uranus      8  0.265E+10  0.135E+10 -0.294E+08 -0.313E+01  0.575E+01  0.617E-01
Neptune     9  0.429E+10 -0.129E+10 -0.722E+08  0.153E+01  0.524E+01 -0.144E+00
9
Framenumber:     1 Time [yr]:   0.032 Step:       1000 Energy:  -0.198E+30
Sun         1  0.274E+06  0.913E+06 -0.181E+05 -0.101E-01  0.876E-02  0.243E-03
Mercury     2 -0.490E+08  0.211E+08  0.615E+07 -0.285E+02 -0.430E+02 -0.897E+00
Venus       3 -0.537E+07 -0.108E+09 -0.118E+07  0.347E+02 -0.192E+01 -0.203E+01
Earth       4 -0.119E+08  0.148E+09 -0.247E+05 -0.302E+02 -0.255E+01  0.472E-03
Mars        5 -0.240E+09 -0.472E+08  0.486E+07  0.566E+01 -0.217E+02 -0.593E+00
Jupiter     6 -0.641E+09 -0.498E+09  0.164E+08  0.787E+01 -0.969E+01 -0.136E+00
Saturn      7  0.288E+07 -0.150E+10  0.260E+08  0.913E+01 -0.117E-01 -0.363E+00
Uranus      8  0.265E+10  0.135E+10 -0.293E+08 -0.314E+01  0.575E+01  0.618E-01
Neptune     9  0.429E+10 -0.129E+10 -0.723E+08  0.153E+01  0.524E+01 -0.144E+00
9
Framenumber:     2 Time [yr]:   0.063 Step:       2000 Energy:  -0.198E+30
Sun         1  0.264E+06  0.922E+06 -0.178E+05 -0.102E-01  0.862E-02  0.247E-03
Mercury     2 -0.575E+08 -0.242E+08  0.323E+07  0.936E+01 -0.425E+02 -0.434E+01
Venus       3  0.290E+08 -0.104E+09 -0.312E+07  0.335E+02  0.920E+01 -0.181E+01
Earth       4 -0.416E+08  0.142E+09 -0.240E+05 -0.291E+02 -0.857E+01  0.743E-03
Mars        5 -0.233E+09 -0.686E+08  0.425E+07  0.782E+01 -0.211E+02 -0.635E+00
Jupiter     6 -0.633E+09 -0.508E+09  0.163E+08  0.802E+01 -0.957E+01 -0.140E+00
Saturn      7  0.120E+08 -0.150E+10  0.257E+08  0.913E+01  0.469E-01 -0.364E+00
Uranus      8  0.265E+10  0.136E+10 -0.293E+08 -0.316E+01  0.574E+01  0.620E-01
Neptune     9  0.429E+10 -0.128E+10 -0.725E+08  0.152E+01  0.524E+01 -0.144E+00
9
Framenumber:     3 Time [yr]:   0.095 Step:       3000 Energy:  -0.198E+30
Sun         1  0.254E+06  0.930E+06 -0.176E+05 -0.104E-01  0.847E-02  0.251E-03
Mercury     2 -0.356E+08 -0.579E+08 -0.153E+07  0.317E+02 -0.230E+02 -0.480E+01
Venus       3  0.605E+08 -0.895E+08 -0.474E+07  0.289E+02  0.194E+02 -0.140E+01
Earth       4 -0.696E+08  0.130E+09 -0.232E+05 -0.267E+02 -0.142E+02  0.992E-03
Mars        5 -0.224E+09 -0.894E+08  0.359E+07  0.995E+01 -0.204E+02 -0.672E+00
Jupiter     6 -0.625E+09 -0.517E+09  0.161E+08  0.818E+01 -0.944E+01 -0.144E+00
Saturn      7  0.211E+08 -0.150E+10  0.253E+08  0.913E+01  0.106E+00 -0.365E+00
Uranus      8  0.265E+10  0.136E+10 -0.292E+08 -0.317E+01  0.573E+01  0.621E-01
Neptune     9  0.429E+10 -0.128E+10 -0.726E+08  0.151E+01  0.524E+01 -0.143E+00
9
Framenumber:     4 Time [yr]:   0.127 Step:       4000 Energy:  -0.198E+30
Sun         1  0.243E+06  0.939E+06 -0.173E+05 -0.105E-01  0.832E-02  0.253E-03
Mercury     2  0.965E+06 -0.682E+08 -0.573E+07  0.389E+02  0.302E+01 -0.333E+01
Venus       3  0.858E+08 -0.658E+08 -0.587E+07  0.213E+02  0.275E+02 -0.851E+00
Earth       4 -0.947E+08  0.114E+09 -0.221E+05 -0.233E+02 -0.193E+02  0.121E-02
Mars        5 -0.213E+09 -0.109E+09  0.290E+07  0.120E+02 -0.194E+02 -0.703E+00
Jupiter     6 -0.617E+09 -0.527E+09  0.160E+08  0.833E+01 -0.931E+01 -0.148E+00
Saturn      7  0.303E+08 -0.150E+10  0.249E+08  0.913E+01  0.164E+00 -0.366E+00
Uranus      8  0.264E+10  0.137E+10 -0.292E+08 -0.318E+01  0.573E+01  0.623E-01
Neptune     9  0.429E+10 -0.127E+10 -0.728E+08  0.151E+01  0.524E+01 -0.143E+00
9
Framenumber:     5 Time [yr]:   0.158 Step:       5000 Energy:  -0.198E+30
Sun         1  0.233E+06  0.947E+06 -0.171E+05 -0.106E-01  0.817E-02  0.255E-03
Mercury     2  0.370E+08 -0.514E+08 -0.766E+07  0.301E+02  0.304E+02 -0.282E+00
Venus       3  0.102E+09 -0.353E+08 -0.641E+07  0.115E+02  0.329E+02 -0.212E+00
Earth       4 -0.116E+09  0.922E+08 -0.208E+05 -0.189E+02 -0.235E+02  0.139E-02
Mars        5 -0.200E+09 -0.128E+09  0.219E+07  0.140E+02 -0.183E+02 -0.728E+00
Jupiter     6 -0.608E+09 -0.536E+09  0.158E+08  0.849E+01 -0.918E+01 -0.152E+00
Saturn      7  0.394E+08 -0.150E+10  0.246E+08  0.912E+01  0.223E+00 -0.367E+00
Uranus      8  0.264E+10  0.138E+10 -0.291E+08 -0.320E+01  0.572E+01  0.624E-01
Neptune     9  0.430E+10 -0.127E+10 -0.729E+08  0.150E+01  0.524E+01 -0.143E+00
9
Framenumber:     6 Time [yr]:   0.190 Step:       6000 Energy:  -0.198E+30
Sun         1  0.222E+06  0.955E+06 -0.168E+05 -0.108E-01  0.803E-02  0.257E-03
Mercury     2  0.541E+08 -0.976E+07 -0.584E+07  0.467E-01  0.500E+02  0.408E+01
Venus       3  0.108E+09 -0.112E+07 -0.629E+07  0.471E+00  0.349E+02  0.452E+00
Earth       4 -0.132E+09  0.670E+08 -0.193E+05 -0.138E+02 -0.267E+02  0.152E-02
Mars        5 -0.185E+09 -0.146E+09  0.145E+07  0.159E+02 -0.169E+02 -0.746E+00
Jupiter     6 -0.600E+09 -0.545E+09  0.157E+08  0.864E+01 -0.905E+01 -0.156E+00
Saturn      7  0.485E+08 -0.150E+10  0.242E+08  0.912E+01  0.281E+00 -0.368E+00
Uranus      8  0.264E+10  0.138E+10 -0.290E+08 -0.321E+01  0.571E+01  0.625E-01
Neptune     9  0.430E+10 -0.126E+10 -0.731E+08  0.150E+01  0.525E+01 -0.143E+00
9
Framenumber:     7 Time [yr]:   0.222 Step:       7000 Energy:  -0.198E+30
Sun         1  0.211E+06  0.963E+06 -0.166E+05 -0.109E-01  0.789E-02  0.259E-03
Mercury     2  0.306E+08  0.367E+08  0.112E+06 -0.468E+02  0.336E+02  0.703E+01
Venus       3  0.103E+09  0.333E+08 -0.552E+07 -0.107E+02  0.333E+02  0.107E+01
Earth       4 -0.143E+09  0.391E+08 -0.177E+05 -0.815E+01 -0.289E+02  0.160E-02
Mars        5 -0.168E+09 -0.162E+09  0.699E+06  0.178E+02 -0.153E+02 -0.757E+00
Jupiter     6 -0.591E+09 -0.554E+09  0.155E+08  0.878E+01 -0.891E+01 -0.159E+00
Saturn      7  0.576E+08 -0.150E+10  0.238E+08  0.912E+01  0.340E+00 -0.369E+00
Uranus      8  0.263E+10  0.139E+10 -0.290E+08 -0.322E+01  0.571E+01  0.627E-01
Neptune     9  0.430E+10 -0.126E+10 -0.732E+08  0.149E+01  0.525E+01 -0.143E+00
9
Framenumber:     8 Time [yr]:   0.254 Step:       8000 Energy:  -0.198E+30
Sun         1  0.200E+06  0.971E+06 -0.163E+05 -0.110E-01  0.777E-02  0.262E-03
Mercury     2 -0.246E+08  0.420E+08  0.561E+07 -0.515E+02 -0.233E+02  0.283E+01
Venus       3  0.874E+08  0.644E+08 -0.418E+07 -0.208E+02  0.282E+02  0.159E+01
Earth       4 -0.148E+09  0.964E+07 -0.161E+05 -0.224E+01 -0.298E+02  0.163E-02
Mars        5 -0.149E+09 -0.176E+09 -0.606E+05  0.194E+02 -0.135E+02 -0.760E+00
Jupiter     6 -0.582E+09 -0.563E+09  0.153E+08  0.893E+01 -0.877E+01 -0.163E+00
Saturn      7  0.667E+08 -0.150E+10  0.235E+08  0.912E+01  0.399E+00 -0.370E+00
Uranus      8  0.263E+10  0.139E+10 -0.289E+08 -0.324E+01  0.570E+01  0.628E-01
Neptune     9  0.430E+10 -0.125E+10 -0.734E+08  0.148E+01  0.525E+01 -0.143E+00
9
Framenumber:     9 Time [yr]:   0.285 Step:       9000 Energy:  -0.198E+30
Sun         1  0.189E+06  0.978E+06 -0.161E+05 -0.111E-01  0.764E-02  0.266E-03
Mercury     2 -0.571E+08  0.311E+07  0.541E+07 -0.120E+02 -0.466E+02 -0.271E+01
Venus       3  0.624E+08  0.888E+08 -0.240E+07 -0.288E+02  0.202E+02  0.194E+01
Earth       4 -0.148E+09 -0.202E+08 -0.145E+05  0.371E+01 -0.296E+02  0.160E-02
Mars        5 -0.129E+09 -0.189E+09 -0.819E+06  0.209E+02 -0.116E+02 -0.756E+00
Jupiter     6 -0.573E+09 -0.572E+09  0.152E+08  0.907E+01 -0.863E+01 -0.167E+00
Saturn      7  0.759E+08 -0.150E+10  0.231E+08  0.911E+01  0.457E+00 -0.371E+00
Uranus      8  0.263E+10  0.140E+10 -0.288E+08 -0.325E+01  0.569E+01  0.630E-01
Neptune     9  0.430E+10 -0.124E+10 -0.735E+08  0.148E+01  0.525E+01 -0.143E+00
9
Framenumber:    10 Time [yr]:   0.317 Step:      10000 Energy:  -0.198E+30
Sun         1  0.178E+06  0.986E+06 -0.158E+05 -0.113E-01  0.750E-02  0.270E-03
Mercury     2 -0.516E+08 -0.399E+08  0.140E+07  0.202E+02 -0.361E+02 -0.480E+01
Venus       3  0.309E+08  0.104E+09 -0.374E+06 -0.338E+02  0.988E+01  0.208E+01
Earth       4 -0.141E+09 -0.491E+08 -0.130E+05  0.945E+01 -0.282E+02  0.152E-02
Mars        5 -0.108E+09 -0.199E+09 -0.157E+07  0.222E+02 -0.940E+01 -0.743E+00
Jupiter     6 -0.564E+09 -0.580E+09  0.150E+08  0.922E+01 -0.848E+01 -0.171E+00
Saturn      7  0.850E+08 -0.150E+10  0.227E+08  0.911E+01  0.516E+00 -0.372E+00
Uranus      8  0.262E+10  0.140E+10 -0.288E+08 -0.326E+01  0.569E+01  0.631E-01
Neptune     9  0.430E+10 -0.124E+10 -0.736E+08  0.147E+01  0.525E+01 -0.143E+00
9
Framenumber:    11 Time [yr]:   0.349 Step:      11000 Energy:  -0.198E+30
Sun         1  0.167E+06  0.993E+06 -0.155E+05 -0.114E-01  0.736E-02  0.274E-03
Mercury     2 -0.220E+08 -0.650E+08 -0.337E+07  0.364E+02 -0.131E+02 -0.441E+01
Venus       3 -0.392E+07  0.108E+09  0.169E+07 -0.352E+02 -0.149E+01  0.201E+01
Earth       4 -0.129E+09 -0.761E+08 -0.115E+05  0.148E+02 -0.257E+02  0.139E-02
Mars        5 -0.848E+08 -0.208E+09 -0.230E+07  0.233E+02 -0.706E+01 -0.721E+00
Jupiter     6 -0.555E+09 -0.589E+09  0.148E+08  0.936E+01 -0.834E+01 -0.175E+00
Saturn      7  0.941E+08 -0.150E+10  0.224E+08  0.911E+01  0.574E+00 -0.373E+00
Uranus      8  0.262E+10  0.141E+10 -0.287E+08 -0.328E+01  0.568E+01  0.633E-01
Neptune     9  0.430E+10 -0.123E+10 -0.738E+08  0.146E+01  0.526E+01 -0.143E+00
9
Framenumber:    12 Time [yr]:   0.380 Step:      12000 Energy:  -0.198E+30
Sun         1  0.155E+06  0.100E+07 -0.152E+05 -0.116E-01  0.722E-02  0.278E-03
Mercury     2  0.162E+08 -0.647E+08 -0.686E+07  0.375E+02  0.140E+02 -0.230E+01
Venus       3 -0.383E+08  0.101E+09  0.358E+07 -0.329E+02 -0.127E+02  0.172E+01
Earth       4 -0.112E+09 -0.100E+09 -0.102E+05  0.195E+02 -0.222E+02  0.122E-02
Mars        5 -0.611E+08 -0.214E+09 -0.301E+07  0.242E+02 -0.456E+01 -0.690E+00
Jupiter     6 -0.545E+09 -0.597E+09  0.147E+08  0.949E+01 -0.819E+01 -0.178E+00
Saturn      7  0.103E+09 -0.150E+10  0.220E+08  0.910E+01  0.633E+00 -0.374E+00
Uranus      8  0.262E+10  0.142E+10 -0.287E+08 -0.329E+01  0.567E+01  0.634E-01
Neptune     9  0.431E+10 -0.123E+10 -0.739E+08  0.146E+01  0.526E+01 -0.143E+00
9
Framenumber:    13 Time [yr]:   0.412 Step:      13000 Energy:  -0.198E+30
Sun         1  0.144E+06  0.101E+07 -0.150E+05 -0.117E-01  0.706E-02  0.282E-03
Mercury     2  0.472E+08 -0.372E+08 -0.746E+07  0.211E+02  0.401E+02  0.134E+01
Venus       3 -0.685E+08  0.831E+08  0.508E+07 -0.271E+02 -0.227E+02  0.125E+01
Earth       4 -0.903E+08 -0.120E+09 -0.907E+04  0.234E+02 -0.179E+02  0.101E-02
Mars        5 -0.365E+08 -0.217E+09 -0.368E+07  0.248E+02 -0.194E+01 -0.649E+00
Jupiter     6 -0.536E+09 -0.605E+09  0.145E+08  0.963E+01 -0.804E+01 -0.182E+00
Saturn      7  0.112E+09 -0.150E+10  0.216E+08  0.910E+01  0.691E+00 -0.375E+00
Uranus      8  0.261E+10  0.142E+10 -0.286E+08 -0.330E+01  0.566E+01  0.636E-01
Neptune     9  0.431E+10 -0.122E+10 -0.741E+08  0.145E+01  0.526E+01 -0.142E+00
9
Framenumber:    14 Time [yr]:   0.444 Step:      14000 Energy:  -0.198E+30
Sun         1  0.132E+06  0.101E+07 -0.147E+05 -0.119E-01  0.690E-02  0.287E-03
Mercury     2  0.505E+08  0.104E+08 -0.386E+07 -0.184E+02  0.501E+02  0.578E+01
Venus       3 -0.914E+08  0.565E+08  0.603E+07 -0.184E+02 -0.301E+02  0.645E+00
Earth       4 -0.654E+08 -0.136E+09 -0.817E+04  0.264E+02 -0.130E+02  0.784E-03
Mars        5 -0.116E+08 -0.217E+09 -0.430E+07  0.251E+02  0.790E+00 -0.599E+00
Jupiter     6 -0.526E+09 -0.613E+09  0.143E+08  0.976E+01 -0.789E+01 -0.186E+00
Saturn      7  0.121E+09 -0.150E+10  0.212E+08  0.909E+01  0.750E+00 -0.375E+00
Uranus      8  0.261E+10  0.143E+10 -0.285E+08 -0.332E+01  0.566E+01  0.637E-01
Neptune     9  0.431E+10 -0.122E+10 -0.742E+08  0.144E+01  0.526E+01 -0.142E+00
9
Framenumber:    15 Time [yr]:   0.475 Step:      15000 Energy:  -0.198E+30
Sun         1  0.120E+06  0.102E+07 -0.144E+05 -0.120E-01  0.674E-02  0.292E-03
Mercury     2  0.946E+07  0.460E+08  0.280E+07 -0.575E+02  0.117E+02  0.623E+01
Venus       3 -0.105E+09  0.239E+08  0.634E+07 -0.772E+01 -0.344E+02 -0.270E-01
Earth       4 -0.380E+08 -0.146E+09 -0.751E+04  0.283E+02 -0.757E+01  0.536E-03
Mars        5  0.135E+08 -0.215E+09 -0.487E+07  0.251E+02  0.359E+01 -0.540E+00
Jupiter     6 -0.516E+09 -0.621E+09  0.141E+08  0.989E+01 -0.773E+01 -0.189E+00
Saturn      7  0.130E+09 -0.150E+10  0.209E+08  0.909E+01  0.808E+00 -0.376E+00
Uranus      8  0.261E+10  0.143E+10 -0.285E+08 -0.333E+01  0.565E+01  0.638E-01
Neptune     9  0.431E+10 -0.121E+10 -0.744E+08  0.144E+01  0.526E+01 -0.142E+00
9
Framenumber:    16 Time [yr]:   0.507 Step:      16000 Energy:  -0.198E+30
Sun         1  0.108E+06  0.103E+07 -0.141E+05 -0.122E-01  0.656E-02  0.298E-03
Mercury     2 -0.424E+08  0.295E+08  0.622E+07 -0.371E+02 -0.384E+02  0.261E+00
Venus       3 -0.107E+09 -0.111E+08  0.598E+07  0.368E+01 -0.350E+02 -0.693E+00
Earth       4 -0.909E+07 -0.151E+09 -0.710E+04  0.292E+02 -0.190E+01  0.279E-03
Mars        5  0.385E+08 -0.210E+09 -0.538E+07  0.247E+02  0.642E+01 -0.473E+00
Jupiter     6 -0.506E+09 -0.628E+09  0.139E+08  0.100E+02 -0.757E+01 -0.193E+00
Saturn      7  0.140E+09 -0.150E+10  0.205E+08  0.908E+01  0.866E+00 -0.377E+00
Uranus      8  0.260E+10  0.144E+10 -0.284E+08 -0.334E+01  0.564E+01  0.640E-01
Neptune     9  0.431E+10 -0.121E+10 -0.745E+08  0.143E+01  0.527E+01 -0.142E+00
9
Framenumber:    17 Time [yr]:   0.539 Step:      17000 Energy:  -0.198E+30
Sun         1  0.955E+05  0.103E+07 -0.138E+05 -0.123E-01  0.637E-02  0.304E-03
Mercury     2 -0.589E+08 -0.152E+08  0.407E+07  0.278E+01 -0.449E+02 -0.392E+01
Venus       3 -0.974E+08 -0.448E+08  0.498E+07  0.146E+02 -0.319E+02 -0.128E+01
Earth       4  0.201E+08 -0.150E+09 -0.695E+04  0.290E+02  0.381E+01  0.236E-04
Mars        5  0.629E+08 -0.202E+09 -0.582E+07  0.240E+02  0.923E+01 -0.397E+00
Jupiter     6 -0.496E+09 -0.636E+09  0.137E+08  0.101E+02 -0.741E+01 -0.196E+00
Saturn      7  0.149E+09 -0.150E+10  0.201E+08  0.908E+01  0.925E+00 -0.378E+00
Uranus      8  0.260E+10  0.144E+10 -0.283E+08 -0.336E+01  0.564E+01  0.641E-01
Neptune     9  0.431E+10 -0.120E+10 -0.746E+08  0.143E+01  0.527E+01 -0.142E+00
9
Framenumber:    18 Time [yr]:   0.570 Step:      18000 Energy:  -0.198E+30
Sun         1  0.831E+05  0.104E+07 -0.135E+05 -0.125E-01  0.616E-02  0.308E-03
Mercury     2 -0.419E+08 -0.526E+08 -0.540E+06  0.285E+02 -0.278E+02 -0.488E+01
Venus       3 -0.779E+08 -0.737E+08  0.346E+07  0.240E+02 -0.255E+02 -0.173E+01
Earth       4  0.486E+08 -0.143E+09 -0.705E+04  0.277E+02  0.938E+01 -0.222E-03
Mars        5  0.865E+08 -0.192E+09 -0.617E+07  0.230E+02  0.120E+02 -0.313E+00
Jupiter     6 -0.486E+09 -0.643E+09  0.135E+08  0.103E+02 -0.725E+01 -0.200E+00
Saturn      7  0.158E+09 -0.150E+10  0.197E+08  0.907E+01  0.983E+00 -0.379E+00
Uranus      8  0.260E+10  0.145E+10 -0.283E+08 -0.337E+01  0.563E+01  0.643E-01
Neptune     9  0.432E+10 -0.120E+10 -0.748E+08  0.142E+01  0.527E+01 -0.142E+00
9
Framenumber:    19 Time [yr]:   0.602 Step:      19000 Energy:  -0.198E+30
Sun         1  0.705E+05  0.105E+07 -0.132E+05 -0.126E-01  0.595E-02  0.312E-03
Mercury     2 -0.714E+07 -0.681E+08 -0.500E+07  0.387E+02 -0.256E+01 -0.376E+01
Venus       3 -0.503E+08 -0.948E+08  0.158E+07  0.308E+02 -0.164E+02 -0.200E+01
Earth       4  0.752E+08 -0.131E+09 -0.739E+04  0.254E+02  0.146E+02 -0.450E-03
Mars        5  0.109E+09 -0.178E+09 -0.644E+07  0.216E+02  0.146E+02 -0.224E+00
Jupiter     6 -0.475E+09 -0.650E+09  0.133E+08  0.104E+02 -0.709E+01 -0.203E+00
Saturn      7  0.167E+09 -0.149E+10  0.193E+08  0.907E+01  0.104E+01 -0.379E+00
Uranus      8  0.259E+10  0.146E+10 -0.282E+08 -0.338E+01  0.562E+01  0.644E-01
Neptune     9  0.432E+10 -0.119E+10 -0.749E+08  0.141E+01  0.527E+01 -0.142E+00
9
Framenumber:    20 Time [yr]:   0.634 Step:      20000 Energy:  -0.198E+30
Sun         1  0.579E+05  0.105E+07 -0.129E+05 -0.127E-01  0.573E-02  0.315E-03
Mercury     2  0.303E+08 -0.569E+08 -0.752E+07  0.334E+02  0.250E+02 -0.103E+01
Venus       3 -0.175E+08 -0.106E+09 -0.471E+06  0.343E+02 -0.577E+01 -0.206E+01
Earth       4  0.990E+08 -0.114E+09 -0.794E+04  0.221E+02  0.193E+02 -0.650E-03
Mars        5  0.130E+09 -0.162E+09 -0.662E+07  0.199E+02  0.171E+02 -0.130E+00
Jupiter     6 -0.465E+09 -0.657E+09  0.131E+08  0.105E+02 -0.692E+01 -0.206E+00
Saturn      7  0.176E+09 -0.149E+10  0.190E+08  0.906E+01  0.110E+01 -0.380E+00
Uranus      8  0.259E+10  0.146E+10 -0.281E+08 -0.339E+01  0.561E+01  0.645E-01
Neptune     9  0.432E+10 -0.119E+10 -0.751E+08  0.141E+01  0.527E+01 -0.142E+00
9
Framenumber:    21 Time [yr]:   0.665 Step:      21000 Energy:  -0.198E+30
Sun         1  0.451E+05  0.106E+07 -0.125E+05 -0.128E-01  0.551E-02  0.317E-03
Mercury     2  0.531E+08 -0.196E+08 -0.657E+07  0.820E+01  0.476E+02  0.313E+01
Venus       3  0.172E+08 -0.106E+09 -0.247E+07  0.343E+02  0.544E+01 -0.191E+01
Earth       4  0.119E+09 -0.928E+08 -0.868E+04  0.179E+02  0.233E+02 -0.815E-03
Mars        5  0.148E+09 -0.144E+09 -0.670E+07  0.179E+02  0.194E+02 -0.318E-01
Jupiter     6 -0.454E+09 -0.664E+09  0.129E+08  0.106E+02 -0.676E+01 -0.210E+00
Saturn      7  0.185E+09 -0.149E+10  0.186E+08  0.905E+01  0.116E+01 -0.381E+00
Uranus      8  0.259E+10  0.147E+10 -0.281E+08 -0.341E+01  0.561E+01  0.647E-01
Neptune     9  0.432E+10 -0.118E+10 -0.752E+08  0.140E+01  0.528E+01 -0.142E+00
9
Framenumber:    22 Time [yr]:   0.697 Step:      22000 Energy:  -0.198E+30
Sun         1  0.323E+05  0.106E+07 -0.122E+05 -0.129E-01  0.529E-02  0.319E-03
Mercury     2  0.391E+08  0.291E+08 -0.131E+07 -0.379E+02  0.417E+02  0.689E+01
Venus       3  0.500E+08 -0.953E+08 -0.422E+07  0.308E+02  0.161E+02 -0.156E+01
Earth       4  0.135E+09 -0.679E+08 -0.956E+04  0.131E+02  0.264E+02 -0.940E-03
Mars        5  0.165E+09 -0.124E+09 -0.668E+07  0.155E+02  0.214E+02  0.676E-01
Jupiter     6 -0.444E+09 -0.671E+09  0.127E+08  0.107E+02 -0.659E+01 -0.213E+00
Saturn      7  0.194E+09 -0.149E+10  0.182E+08  0.905E+01  0.122E+01 -0.382E+00
Uranus      8  0.258E+10  0.147E+10 -0.280E+08 -0.342E+01  0.560E+01  0.648E-01
Neptune     9  0.432E+10 -0.118E+10 -0.754E+08  0.139E+01  0.528E+01 -0.142E+00
9
Framenumber:    23 Time [yr]:   0.729 Step:      23000 Energy:  -0.198E+30
Sun         1  0.194E+05  0.107E+07 -0.119E+05 -0.129E-01  0.509E-02  0.322E-03
Mercury     2 -0.137E+08  0.458E+08  0.490E+07 -0.564E+02 -0.125E+02  0.415E+01
Venus       3  0.778E+08 -0.746E+08 -0.554E+07  0.242E+02  0.250E+02 -0.105E+01
Earth       4  0.145E+09 -0.404E+08 -0.105E+05  0.768E+01  0.285E+02 -0.102E-02
Mars        5  0.179E+09 -0.102E+09 -0.656E+07  0.129E+02  0.231E+02  0.167E+00
Jupiter     6 -0.433E+09 -0.677E+09  0.125E+08  0.109E+02 -0.641E+01 -0.216E+00
Saturn      7  0.203E+09 -0.149E+10  0.178E+08  0.904E+01  0.127E+01 -0.382E+00
Uranus      8  0.258E+10  0.148E+10 -0.279E+08 -0.343E+01  0.559E+01  0.650E-01
Neptune     9  0.432E+10 -0.117E+10 -0.755E+08  0.139E+01  0.528E+01 -0.141E+00
9
Framenumber:    24 Time [yr]:   0.761 Step:      24000 Energy:  -0.198E+30
Sun         1  0.640E+04  0.107E+07 -0.116E+05 -0.130E-01  0.490E-02  0.324E-03
Mercury     2 -0.540E+08  0.126E+08  0.588E+07 -0.203E+02 -0.455E+02 -0.186E+01
Venus       3  0.975E+08 -0.461E+08 -0.629E+07  0.150E+02  0.315E+02 -0.435E+00
Earth       4  0.150E+09 -0.112E+08 -0.116E+05  0.194E+01  0.296E+02 -0.105E-02
Mars        5  0.191E+09 -0.777E+08 -0.635E+07  0.101E+02  0.245E+02  0.264E+00
Jupiter     6 -0.422E+09 -0.684E+09  0.123E+08  0.110E+02 -0.624E+01 -0.219E+00
Saturn      7  0.212E+09 -0.149E+10  0.174E+08  0.903E+01  0.133E+01 -0.383E+00
Uranus      8  0.258E+10  0.148E+10 -0.279E+08 -0.345E+01  0.558E+01  0.651E-01
Neptune     9  0.432E+10 -0.117E+10 -0.757E+08  0.138E+01  0.528E+01 -0.141E+00
9
Framenumber:    25 Time [yr]:   0.792 Step:      25000 Energy:  -0.198E+30
Sun         1 -0.664E+04  0.108E+07 -0.113E+05 -0.131E-01  0.470E-02  0.326E-03
Mercury     2 -0.554E+08 -0.320E+08  0.236E+07  0.150E+02 -0.397E+02 -0.461E+01
Venus       3  0.107E+09 -0.127E+08 -0.639E+07  0.426E+01  0.347E+02  0.229E+00
Earth       4  0.149E+09  0.184E+08 -0.126E+05 -0.393E+01  0.295E+02 -0.103E-02
Mars        5  0.200E+09 -0.527E+08 -0.604E+07  0.721E+01  0.255E+02  0.357E+00
Jupiter     6 -0.411E+09 -0.690E+09  0.121E+08  0.111E+02 -0.607E+01 -0.222E+00
Saturn      7  0.221E+09 -0.149E+10  0.171E+08  0.902E+01  0.139E+01 -0.384E+00
Uranus      8  0.257E+10  0.149E+10 -0.278E+08 -0.346E+01  0.558E+01  0.653E-01
Neptune     9  0.433E+10 -0.116E+10 -0.758E+08  0.137E+01  0.528E+01 -0.141E+00
9
Framenumber:    26 Time [yr]:   0.824 Step:      26000 Energy:  -0.198E+30
Sun         1 -0.197E+05  0.108E+07 -0.109E+05 -0.131E-01  0.452E-02  0.328E-03
Mercury     2 -0.295E+08 -0.617E+08 -0.244E+07  0.343E+02 -0.183E+02 -0.464E+01
Venus       3  0.106E+09  0.220E+08 -0.584E+07 -0.699E+01  0.343E+02  0.873E+00
Earth       4  0.142E+09  0.473E+08 -0.136E+05 -0.971E+01  0.282E+02 -0.967E-03
Mars        5  0.205E+09 -0.269E+08 -0.564E+07  0.419E+01  0.261E+02  0.444E+00
Jupiter     6 -0.400E+09 -0.696E+09  0.118E+08  0.112E+02 -0.589E+01 -0.225E+00
Saturn      7  0.230E+09 -0.149E+10  0.167E+08  0.901E+01  0.145E+01 -0.384E+00
Uranus      8  0.257E+10  0.149E+10 -0.277E+08 -0.347E+01  0.557E+01  0.654E-01
Neptune     9  0.433E+10 -0.116E+10 -0.759E+08  0.137E+01  0.528E+01 -0.141E+00
9
Framenumber:    27 Time [yr]:   0.856 Step:      27000 Energy:  -0.198E+30
Sun         1 -0.329E+05  0.109E+07 -0.106E+05 -0.132E-01  0.434E-02  0.329E-03
Mercury     2  0.820E+07 -0.669E+08 -0.632E+07  0.386E+02  0.836E+01 -0.286E+01
Venus       3  0.935E+08  0.546E+08 -0.467E+07 -0.176E+02  0.303E+02  0.143E+01
Earth       4  0.130E+09  0.744E+08 -0.145E+05 -0.152E+02  0.258E+02 -0.854E-03
Mars        5  0.208E+09 -0.691E+06 -0.515E+07  0.112E+01  0.263E+02  0.523E+00
Jupiter     6 -0.389E+09 -0.702E+09  0.116E+08  0.113E+02 -0.571E+01 -0.228E+00
Saturn      7  0.239E+09 -0.148E+10  0.163E+08  0.900E+01  0.151E+01 -0.385E+00
Uranus      8  0.257E+10  0.150E+10 -0.277E+08 -0.349E+01  0.556E+01  0.655E-01
Neptune     9  0.433E+10 -0.115E+10 -0.761E+08  0.136E+01  0.529E+01 -0.141E+00
9
Framenumber:    28 Time [yr]:   0.887 Step:      28000 Energy:  -0.198E+30
Sun         1 -0.461E+05  0.109E+07 -0.103E+05 -0.132E-01  0.418E-02  0.331E-03
Mercury     2  0.422E+08 -0.448E+08 -0.764E+07  0.262E+02  0.353E+02  0.481E+00
Venus       3  0.713E+08  0.816E+08 -0.302E+07 -0.264E+02  0.231E+02  0.184E+01
Earth       4  0.112E+09  0.986E+08 -0.153E+05 -0.200E+02  0.224E+02 -0.687E-03
Mars        5  0.208E+09  0.256E+08 -0.459E+07 -0.192E+01  0.261E+02  0.595E+00
Jupiter     6 -0.377E+09 -0.707E+09  0.114E+08  0.114E+02 -0.553E+01 -0.231E+00
Saturn      7  0.248E+09 -0.148E+10  0.159E+08  0.899E+01  0.156E+01 -0.386E+00
Uranus      8  0.256E+10  0.151E+10 -0.276E+08 -0.350E+01  0.555E+01  0.657E-01
Neptune     9  0.433E+10 -0.115E+10 -0.762E+08  0.135E+01  0.529E+01 -0.141E+00
9
Framenumber:    29 Time [yr]:   0.919 Step:      29000 Energy:  -0.198E+30
Sun         1 -0.593E+05  0.110E+07 -0.994E+04 -0.133E-01  0.402E-02  0.332E-03
Mercury     2  0.530E+08  0.166E+06 -0.495E+07 -0.857E+01  0.509E+02  0.494E+01
Venus       3  0.416E+08  0.100E+09 -0.106E+07 -0.325E+02  0.135E+02  0.206E+01
Earth       4  0.898E+08  0.119E+09 -0.159E+05 -0.242E+02  0.180E+02 -0.467E-03
Mars        5  0.204E+09  0.514E+08 -0.397E+07 -0.488E+01  0.256E+02  0.656E+00
Jupiter     6 -0.366E+09 -0.713E+09  0.111E+08  0.115E+02 -0.535E+01 -0.234E+00
Saturn      7  0.257E+09 -0.148E+10  0.155E+08  0.898E+01  0.162E+01 -0.386E+00
Uranus      8  0.256E+10  0.151E+10 -0.276E+08 -0.351E+01  0.555E+01  0.658E-01
Neptune     9  0.433E+10 -0.114E+10 -0.764E+08  0.135E+01  0.529E+01 -0.141E+00
9
Framenumber:    30 Time [yr]:   0.951 Step:      30000 Energy:  -0.198E+30
Sun         1 -0.726E+05  0.110E+07 -0.960E+04 -0.133E-01  0.388E-02  0.335E-03
Mercury     2  0.206E+08  0.424E+08  0.147E+07 -0.533E+02  0.237E+02  0.683E+01
Venus       3  0.749E+07  0.108E+09  0.102E+07 -0.352E+02  0.232E+01  0.206E+01
Earth       4  0.640E+08  0.134E+09 -0.162E+05 -0.273E+02  0.128E+02 -0.207E-03
Mars        5  0.198E+09  0.766E+08 -0.329E+07 -0.772E+01  0.247E+02  0.707E+00
Jupiter     6 -0.354E+09 -0.718E+09  0.109E+08  0.116E+02 -0.516E+01 -0.237E+00
Saturn      7  0.266E+09 -0.148E+10  0.151E+08  0.897E+01  0.168E+01 -0.387E+00
Uranus      8  0.256E+10  0.152E+10 -0.275E+08 -0.352E+01  0.554E+01  0.660E-01
Neptune     9  0.433E+10 -0.113E+10 -0.765E+08  0.134E+01  0.529E+01 -0.141E+00
9
Framenumber:    31 Time [yr]:   0.982 Step:      31000 Energy:  -0.198E+30
Sun         1 -0.860E+05  0.110E+07 -0.927E+04 -0.134E-01  0.374E-02  0.339E-03
Mercury     2 -0.342E+08  0.368E+08  0.604E+07 -0.451E+02 -0.317E+02  0.155E+01
Venus       3 -0.274E+08  0.105E+09  0.299E+07 -0.341E+02 -0.913E+01  0.184E+01
Earth       4  0.355E+08  0.144E+09 -0.163E+05 -0.294E+02  0.708E+01  0.800E-04
Mars        5  0.189E+09  0.101E+09 -0.256E+07 -0.104E+02  0.235E+02  0.747E+00
Jupiter     6 -0.343E+09 -0.723E+09  0.107E+08  0.116E+02 -0.498E+01 -0.240E+00
Saturn      7  0.275E+09 -0.148E+10  0.147E+08  0.896E+01  0.174E+01 -0.387E+00
Uranus      8  0.255E+10  0.152E+10 -0.274E+08 -0.354E+01  0.553E+01  0.661E-01
Neptune     9  0.434E+10 -0.113E+10 -0.767E+08  0.134E+01  0.529E+01 -0.140E+00
9
Framenumber:    32 Time [yr]:   1.014 Step:      32000 Energy:  -0.198E+30
Sun         1 -0.995E+05  0.111E+07 -0.892E+04 -0.135E-01  0.359E-02  0.343E-03
Mercury     2 -0.589E+08 -0.577E+07  0.483E+07 -0.450E+01 -0.463E+02 -0.337E+01
Venus       3 -0.594E+08  0.901E+08  0.464E+07 -0.294E+02 -0.196E+02  0.142E+01
Earth       4  0.558E+07  0.148E+09 -0.161E+05 -0.302E+02  0.105E+01  0.379E-03
Mars        5  0.177E+09  0.124E+09 -0.180E+07 -0.128E+02  0.220E+02  0.776E+00
Jupiter     6 -0.331E+09 -0.728E+09  0.104E+08  0.117E+02 -0.479E+01 -0.243E+00
Saturn      7  0.284E+09 -0.148E+10  0.144E+08  0.895E+01  0.180E+01 -0.388E+00
Uranus      8  0.255E+10  0.153E+10 -0.274E+08 -0.355E+01  0.552E+01  0.662E-01
Neptune     9  0.434E+10 -0.112E+10 -0.768E+08  0.133E+01  0.530E+01 -0.140E+00
9
Framenumber:    33 Time [yr]:   1.046 Step:      33000 Energy:  -0.198E+30
Sun         1 -0.113E+06  0.111E+07 -0.858E+04 -0.136E-01  0.343E-02  0.348E-03
Mercury     2 -0.476E+08 -0.464E+08  0.464E+06  0.245E+02 -0.322E+02 -0.488E+01
Venus       3 -0.851E+08  0.661E+08  0.579E+07 -0.215E+02 -0.280E+02  0.855E+00
Earth       4 -0.246E+08  0.146E+09 -0.155E+05 -0.299E+02 -0.505E+01  0.677E-03
Mars        5  0.163E+09  0.145E+09 -0.101E+07 -0.151E+02  0.203E+02  0.795E+00
Jupiter     6 -0.319E+09 -0.733E+09  0.102E+08  0.118E+02 -0.460E+01 -0.245E+00
Saturn      7  0.293E+09 -0.147E+10  0.140E+08  0.894E+01  0.185E+01 -0.388E+00
Uranus      8  0.254E+10  0.153E+10 -0.273E+08 -0.356E+01  0.552E+01  0.664E-01
Neptune     9  0.434E+10 -0.112E+10 -0.770E+08  0.132E+01  0.530E+01 -0.140E+00
9
Framenumber:    34 Time [yr]:   1.077 Step:      34000 Energy:  -0.198E+30
Sun         1 -0.127E+06  0.111E+07 -0.823E+04 -0.137E-01  0.326E-02  0.352E-03
Mercury     2 -0.152E+08 -0.669E+08 -0.419E+07  0.378E+02 -0.805E+01 -0.412E+01
Venus       3 -0.102E+09  0.351E+08  0.632E+07 -0.113E+02 -0.334E+02  0.195E+00
Earth       4 -0.537E+08  0.138E+09 -0.147E+05 -0.282E+02 -0.109E+02  0.961E-03
Mars        5  0.147E+09  0.164E+09 -0.209E+06 -0.171E+02  0.183E+02  0.802E+00
Jupiter     6 -0.307E+09 -0.737E+09  0.993E+07  0.119E+02 -0.441E+01 -0.248E+00
Saturn      7  0.302E+09 -0.147E+10  0.136E+08  0.893E+01  0.191E+01 -0.389E+00
Uranus      8  0.254E+10  0.154E+10 -0.272E+08 -0.358E+01  0.551E+01  0.665E-01
Neptune     9  0.434E+10 -0.111E+10 -0.771E+08  0.132E+01  0.530E+01 -0.140E+00
9
Framenumber:    35 Time [yr]:   1.109 Step:      35000 Energy:  -0.198E+30
Sun         1 -0.140E+06  0.112E+07 -0.788E+04 -0.138E-01  0.308E-02  0.356E-03
Mercury     2  0.230E+08 -0.614E+08 -0.724E+07  0.359E+02  0.194E+02 -0.171E+01
Venus       3 -0.107E+09  0.461E+06  0.617E+07 -0.369E-01 -0.352E+02 -0.482E+00
Earth       4 -0.807E+08  0.125E+09 -0.136E+05 -0.254E+02 -0.164E+02  0.122E-02
Mars        5  0.129E+09  0.181E+09  0.593E+06 -0.188E+02  0.162E+02  0.800E+00
Jupiter     6 -0.296E+09 -0.741E+09  0.968E+07  0.120E+02 -0.422E+01 -0.250E+00
Saturn      7  0.311E+09 -0.147E+10  0.132E+08  0.892E+01  0.197E+01 -0.390E+00
Uranus      8  0.254E+10  0.154E+10 -0.272E+08 -0.359E+01  0.550E+01  0.667E-01
Neptune     9  0.434E+10 -0.111E+10 -0.772E+08  0.131E+01  0.530E+01 -0.140E+00
9
Framenumber:    36 Time [yr]:   1.141 Step:      36000 Energy:  -0.198E+30
Sun         1 -0.154E+06  0.112E+07 -0.752E+04 -0.139E-01  0.288E-02  0.359E-03
Mercury     2  0.504E+08 -0.290E+08 -0.711E+07  0.153E+02  0.441E+02  0.220E+01
Venus       3 -0.102E+09 -0.341E+08  0.537E+07  0.112E+02 -0.333E+02 -0.110E+01
Earth       4 -0.104E+09  0.106E+09 -0.123E+05 -0.216E+02 -0.211E+02  0.144E-02
Mars        5  0.110E+09  0.196E+09  0.139E+07 -0.202E+02  0.139E+02  0.788E+00
Jupiter     6 -0.284E+09 -0.746E+09  0.943E+07  0.121E+02 -0.402E+01 -0.253E+00
Saturn      7  0.320E+09 -0.147E+10  0.128E+08  0.890E+01  0.203E+01 -0.390E+00
Uranus      8  0.253E+10  0.155E+10 -0.271E+08 -0.360E+01  0.549E+01  0.668E-01
Neptune     9  0.434E+10 -0.110E+10 -0.774E+08  0.130E+01  0.530E+01 -0.140E+00
9
Framenumber:    37 Time [yr]:   1.172 Step:      37000 Energy:  -0.198E+30
Sun         1 -0.168E+06  0.112E+07 -0.716E+04 -0.140E-01  0.268E-02  0.362E-03
Mercury     2  0.457E+08  0.200E+08 -0.267E+07 -0.280E+02  0.472E+02  0.643E+01
Venus       3 -0.854E+08 -0.649E+08  0.400E+07  0.212E+02 -0.279E+02 -0.161E+01
Earth       4 -0.124E+09  0.827E+08 -0.108E+05 -0.169E+02 -0.249E+02  0.162E-02
Mars        5  0.889E+08  0.209E+09  0.217E+07 -0.214E+02  0.116E+02  0.767E+00